[
    {
        "Product Title": "Gases for Industrial Use",
        "Product URL": "https://www.alibaba.com/product-detail/Gases-for-Industrial-Use_1601371739648.html",
        "Key Attributes": {},
        "Date Scraped": "2025-02-19 16:53:59"
    },
    {
        "Product Title": "R-22 Gas for Sale, Premium-Grade Refrigerant for Air Conditioning Systems, Industrial Cooling Solutions",
        "Product URL": "https://www.alibaba.com/product-detail/R-22-Gas-for-Sale-Premium_10000023751326.html",
        "Key Attributes": {
            "CAS No.": "/",
            "Purity": "99",
            "Classification": "Alkene & Derivatives",
            "Place of Origin": "France",
            "Other Names": "Refrigerant Gas",
            "MF": "562-92-3",
            "EINECS No.": "/",
            "Grade Standard": "Agriculture Grade, Industrial Grade",
            "Appearance": "Liquid",
            "Application": "Agriculture and industry",
            "Brand Name": "Custom",
            "Model Number": "Refrigerant Gas",
            "Product name": "Refrigerant Gas",
            "Packing": "Individual Packs",
            "Quality": "High Quaiity",
            "Service": "OEM ODM",
            "Brand": "Customer's Brand Accepted",
            "Delivery date": "15-25 Days",
            "Packing Way": "Customizable Packaging"
        },
        "Date Scraped": "2025-02-19 16:54:06"
    },
    {
        "Product Title": "N/A",
        "Product URL": "https://www.alibaba.com/product-detail/Refrigerants-Gas-R132A-410A-R404A-R407A_11000019030566.html",
        "Key Attributes": {
            "CAS No.": "refrigerant gas",
            "Purity": "100%",
            "Classification": "refrigerant gas",
            "Place of Origin": "Ankara, Turkey",
            "Other Names": "Ac gas",
            "MF": "refrigerant gas",
            "EINECS No.": "refrigerant gas",
            "Grade Standard": "Agriculture Grade, Electron Grade, Food Grade, Industrial Grade",
            "Appearance": "refrigerant gas",
            "Application": "ac fridge",
            "Brand Name": "refrigerant gas",
            "Model Number": "refrigerant gas"
        },
        "Date Scraped": "2025-02-19 16:54:14"
    },
    {
        "Product Title": "134 High Quality Refrigerant Gas for air Conditioning 134A",
        "Product URL": "https://www.alibaba.com/product-detail/134-High-Quality-Refrigerant-Gas-for_1601254496530.html",
        "Key Attributes": {
            "CAS No.": "354-44",
            "Purity": "99.9%",
            "Classification": "Alkyne & Derivatives",
            "Place of Origin": "Guangdong, China",
            "Other Names": "gas",
            "MF": "CH2",
            "EINECS No.": "234",
            "Grade Standard": "Agriculture Grade, Industrial Grade, Reagent Grade",
            "Appearance": "colorness",
            "Application": "cooling",
            "Brand Name": "CM",
            "Model Number": "134",
            "Color": "Colerless",
            "Purity %": "99.9min",
            "MOQ": "1 Cylinder",
            "Package": "Carton Box",
            "Usage": "HVAC Systerm",
            "Name": "gas",
            "Net weight": "13.6",
            "Selling Units:": "Single item",
            "Single package size:": "24.5X24.5X42.5 cm",
            "Single gross weight:": "16.600 kg"
        },
        "Date Scraped": "2025-02-19 16:54:22"
    },
    {
        "Product Title": "R134a Refrigerant Gas Price ,good Sales in Market",
        "Product URL": "https://www.alibaba.com/product-detail/R134a-Refrigerant-Gas-Price-good-Sales_1600465528156.html",
        "Key Attributes": {
            "CAS No.": "75-28-5",
            "Purity": "99.99%",
            "Classification": "Alkyl & Derivatives",
            "Place of Origin": "China",
            "Other Names": "R134a refrigerant",
            "MF": "C4H10",
            "EINECS No.": "200-891-8",
            "Appearance": "Colorless, No turbid",
            "Application": "Refrigerant,can replace",
            "Model Number": "R134a",
            "Product name": "High Purity Refrigerant Gas R134a",
            "Name": "Competitive Refrigerant R134a Gas",
            "Type": "Eco-friendly Refrigerant",
            "Packing": "Disposable Cylinder 30lb/13.6kg",
            "Boiling Point": "26.1",
            "Molecular weight": "102.0",
            "Color": "Colorless Refrigerant",
            "GWP": "1300",
            "Critical   Temperature": "101.1",
            "Keywords": "134a Refrigerant"
        },
        "Date Scraped": "2025-02-19 16:54:40"
    },
    {
        "Product Title": "Manufacturers Direct Sales of High Quality Refrigerant Gas",
        "Product URL": "https://www.alibaba.com/product-detail/Manufacturers-Direct-Sales-of-High-Quality_1601243478867.html",
        "Key Attributes": {
            "CAS No.": "01",
            "Purity": "99.99%",
            "Classification": "hydrocarbon",
            "Place of Origin": "Shandong, China",
            "Other Names": "Refrigerant Gas",
            "MF": "01",
            "EINECS No.": "01",
            "Grade Standard": "Agriculture Grade",
            "Application": "Refrigerant Gas",
            "Brand Name": "Bx",
            "Model Number": "Refrigerant Gas",
            "GWP": "1300",
            "Packing": "Disposable Cylinder 30lb/13.6kg",
            "Color": "Colorless Refrigerant",
            "Type": "Eco-friendly Refrigerant",
            "Selling Units:": "Single item",
            "Single package size:": "XX cm",
            "Single gross weight:": "kg"
        },
        "Date Scraped": "2025-02-19 16:55:45"
    },
    {
        "Product Title": "Coolmax New New Materials  R404a Refrigerant Gas 10.9kg  99.9% Purity for Car Air Conditioner Refrigerant for Auto Ac Systems",
        "Product URL": "https://www.alibaba.com/product-detail/Coolmax-New-New-Materials-R404a-Refrigerant_1601270209081.html",
        "Key Attributes": {
            "OE NO.": "NA",
            "Warranty": "1 Year",
            "Place of Origin": "Guangdong, China",
            "Purpose": "for replace/repair",
            "Condition": "New",
            "Reference NO.": "/",
            "Size": "10.9KG",
            "Type": "Refrigerant Gas",
            "Brand Name": "Coolmax",
            "Car Model": "universal",
            "Product Name": "Refrigerant Gas R404A",
            "Quality": "High-Quality",
            "Color": "Original Color",
            "Net weight": "10.9KG",
            "Purity": "99.99%",
            "Application": "Car Air Conditioning System",
            "Model": "404A",
            "Appearance": "cylinder",
            "Delivery time": "7-15 Days",
            "Selling Units:": "Single item",
            "Single package size:": "XX cm",
            "Single gross weight:": "kg"
        },
        "Date Scraped": "2025-02-19 16:55:53"
    },
    {
        "Product Title": "R404 Hot Sale R404 13.6kg Refrigerant Gas 99.9% Purity for Air Conditioner and Refrigerator",
        "Product URL": "https://www.alibaba.com/product-detail/R404-Hot-Sale-R404-13-6kg_1601260901820.html",
        "Key Attributes": {
            "Material": "Steel",
            "Use": "refrigerant",
            "Place of Origin": "Shandong, China",
            "Pressure": "High",
            "Model Number": "refrigerant",
            "Brand Name": "Goldsail gas",
            "Selling Units:": "Single item",
            "Single package size:": "25X25X45 cm",
            "Single gross weight:": "17.000 kg"
        },
        "Date Scraped": "2025-02-19 16:56:01"
    },
    {
        "Product Title": "R134a Refrigerant Auto Ac air Conditioning Refrigerant Gas Supply / 12kg R134a Refrigerant Gas Professional Manufacture",
        "Product URL": "https://www.alibaba.com/product-detail/R134a-Refrigerant-Auto-Ac-air-Conditioning_11000021359003.html",
        "Key Attributes": {
            "place of origin": "New York, United States",
            "grade": "DIY",
            "warranty": "3 years",
            "customized support": "OEM, ODM",
            "brand name": "Custom",
            "model number": "r134a gas",
            "Product name": "r134a gas",
            "Application": "Multi Functional",
            "Usage": "Easy",
            "Function": "Mulit-purpose",
            "Type": "Hand-operated Manual",
            "Keywords": "r134a gas"
        },
        "Date Scraped": "2025-02-19 16:57:05"
    },
    {
        "Product Title": "High Purity Refrigerant Gas HFO No Pollution Eco-friendly R1234yf Automobile Air Conditioning",
        "Product URL": "https://www.alibaba.com/product-detail/High-Purity-Refrigerant-Gas-HFO-No_1600655934328.html?s=p",
        "Key Attributes": {
            "CAS No.": "754-12-1",
            "Purity": "99.9%",
            "Classification": "Alkene & Derivatives",
            "Place of Origin": "China",
            "Other Names": "1234yf",
            "MF": "CF3CF=CH2",
            "EINECS No.": "468-710-7",
            "Grade Standard": "Industrial Grade",
            "Appearance": "Colourless",
            "Application": "Automobile Air conditioning",
            "Brand Name": "E-KOOL",
            "Model Number": "1234yf",
            "Type": "Eco-friendly Refrigerant",
            "GWP": "4",
            "ODP": "0",
            "Price": "70USD",
            "Product name": "No pollution 1234 yf",
            "Keywords": "Refrigerant HFO 1234yf",
            "Packing": "NON-REFILLABLE DISPOSSABLE CYLINDER",
            "NET WEIGHT": "5KG",
            "Packaging Details": "Disposable cylinder: 4.5kg  5kg 10kg \nRecyclable cylinder: 12L, 800L, 926L,",
            "Port": "Ningbo, Shanghai",
            "Supply Ability": "100 Metric Ton/Metric Tons per   Year"
        },
        "Date Scraped": "2025-02-19 16:57:15"
    },
    {
        "Product Title": "99.9% Purity R410a Refrigerant Gas for Air Conditioner AC Cooling Gas R410 25Lbs, 11.3kg",
        "Product URL": "https://www.alibaba.com/product-detail/99-9-Purity-R410a-Refrigerant-Gas_1601275618400.html",
        "Key Attributes": {
            "CAS No.": "133023-17-3",
            "Purity": "99.9%",
            "Classification": "Alkene & Derivatives",
            "Place of Origin": "Shandong, China",
            "Other Names": "Genetron AZ-20",
            "MF": "C3H3F7",
            "EINECS No.": "-",
            "Grade Standard": "Agriculture Grade, Electron Grade, Industrial Grade, Medicine Grade, Reagent Grade",
            "Appearance": "Colorless Gas",
            "Application": "Refigerant Systems",
            "Brand Name": "SHINGCHEM/OEM",
            "Model Number": "R410a",
            "Product name": "R410a",
            "Color": "Colorless Refrigerant",
            "Packing": "Disable Steel Cylinder",
            "GWP": "1700",
            "ODP": "0.034",
            "Boiling Point(1atm/℃)": "-43.8",
            "MOQ": "500",
            "Brand": "SHINGCHEM/OEM",
            "Critical   Pressure(Mpa)": "4.814",
            "Selling Units:": "Single item",
            "Single package size:": "XX cm",
            "Single gross weight:": "kg"
        },
        "Date Scraped": "2025-02-19 16:57:24"
    },
    {
        "Product Title": "N/A",
        "Product URL": "https://www.alibaba.com/product-detail/99-9-Purity-Gas-Refrigernat-600a_1600256137601.html",
        "Key Attributes": {
            "CAS No.": "75-28-5",
            "Purity": ">99.9%",
            "Classification": "Alkyl & Derivatives",
            "Place of Origin": "Zhejiang, China",
            "Other Names": "refrigerant R600A",
            "MF": "(CH3)2CHCH3",
            "Grade Standard": "Industrial Grade",
            "Appearance": "Colorless, clear",
            "Application": "refrigerant gas ,cooling",
            "Brand Name": "superfrio/OEM/Neutral packing",
            "Model Number": ".6.5KG/cylinder",
            "Product name": "Refrigerant Gas R600a",
            "UN NO": "1969",
            "Molecular Weight": "58.12",
            "Odor": "Odorless Refrigerant Gas",
            "ODP": "0",
            "Moisture": "<0.0001%",
            "Acidity, PPm": "1",
            "Boiling Point, °C": "-11.7°C",
            "Packaging Details": "100G/CAN 120G/CAN 400G/CAN 6.5KG/CYLINDER",
            "Port": "ningbo",
            "Supply Ability": "500 Forty-Foot Container  per   Month"
        },
        "Date Scraped": "2025-02-19 16:58:37"
    },
    {
        "Product Title": "N/A",
        "Product URL": "https://www.alibaba.com/product-detail/competitive-prices-Refrigerant-gas-available-for_11000021024605.html",
        "Key Attributes": {
            "type": "Refrigeration Compressor",
            "application": "Refrigeration Parts",
            "weight (kg)": "76",
            "warranty": "Unavailable",
            "video outgoing-inspection": "Provided",
            "machinery test report": "Provided",
            "place of origin": "Brazil",
            "brand name": "Custom",
            "Material": "rubber and plastic",
            "Product Name": "Refrigerant gas",
            "Quality": "High Qulaity",
            "Packing": "Customer's Requirement",
            "SERVICE": "OEM ODM",
            "Origin": "Brazil",
            "Grade": "A"
        },
        "Date Scraped": "2025-02-19 16:58:53"
    },
    {
        "Product Title": "Refrigerator Gas Can R134a Refrigerant Gas Can for Car air Conditioner",
        "Product URL": "https://www.alibaba.com/product-detail/Refrigerator-Gas-Can-R134a-Refrigerant-Gas_62446476347.html",
        "Key Attributes": {
            "Metal Type": "TINPLATE",
            "Industrial Use": "Chemical",
            "Place of Origin": "Guangdong, China",
            "Surface Handling": "Hot Stamping",
            "Sealing Type": "Cap with Brush",
            "Shape": "Necked-in",
            "Surface finishing": "Powder-coated",
            "Logo printing": "custom",
            "Model Number": "OEM",
            "Brand Name": "YONGJIA",
            "Printing Handling": "Silk screen printing, offset lithography, cameo printing, Flexographic Printing, Digital printing, Gold Stamp, curved surface printing",
            "Usage": "aerosol",
            "Material": "Tinplate",
            "Printing": "CMYK  Printing",
            "Size": "Diameter 65/70mm",
            "Certificate": "ISO9001:2008",
            "Body thickness": "0.35mm",
            "Logo": "Accept Customer's Logo",
            "Height": "100-240mm",
            "Sample": "free",
            "Selling Units:": "Single item",
            "Single package size:": "150X130X120 cm",
            "Single gross weight:": "0.100 kg"
        },
        "Date Scraped": "2025-02-19 16:59:11"
    },
    {
        "Product Title": "Best Quality 99.9% Pure Gas Refrigerant R409A Mixed Refrigerant R409A at Competitive Price",
        "Product URL": "https://www.alibaba.com/product-detail/Best-Quality-99-9-Pure-Gas_11000017344456.html",
        "Key Attributes": {},
        "Date Scraped": "2025-02-19 16:59:17"
    },
    {
        "Product Title": "Refrigerant AC Gas Charging Valve Refrigerant Copper Material 1/4\" Pipe",
        "Product URL": "https://www.alibaba.com/product-detail/Refrigerant-AC-Gas-Charging-Valve-Refrigerant_1600231945097.html?s=p",
        "Key Attributes": {
            "power source": "Manual",
            "application": "Commercial",
            "type": "Conditioning Fitting",
            "place of origin": "Fujian, China",
            "after-sales service provided": "None",
            "warranty": "1 Year",
            "brand name": "BTP",
            "model number": "AS REQUEST",
            "CONNECTION:": "1/4",
            "MOQ": "3000pcs",
            "Package": "Carton Box",
            "Logo": "Custom",
            "Material": "Copper",
            "Description": "charging valve",
            "Certification": "CE",
            "Selling Units:": "Single item",
            "Single package size:": "1X1X1 cm",
            "Single gross weight:": "1.000 kg"
        },
        "Date Scraped": "2025-02-19 17:00:40"
    },
    {
        "Product Title": "99.9% High Purity  R410a Refrigerant Gases Blend HFC Gas 11.3KG Small Disposable Cylinder",
        "Product URL": "https://www.alibaba.com/product-detail/99-9-High-Purity-R410a-Refrigerant_10000021789034.html",
        "Key Attributes": {},
        "Date Scraped": "2025-02-19 17:00:54"
    },
    {
        "Product Title": "HVAC Refrigeration  Manifold Gauge Set HS-536C for R22 R404A R134A",
        "Product URL": "https://www.alibaba.com/product-detail/HVAC-Refrigeration-Manifold-Gauge-Set-HS_1601116266124.html?s=p",
        "Key Attributes": {
            "power source": "Gas, Manual",
            "application": "Home",
            "type": "Refrigeration Parts",
            "place of origin": "Zhejiang, China",
            "after-sales service provided": "None",
            "warranty": "None",
            "brand name": "HONGSEN",
            "model number": "HS-536C",
            "Product Name": "Manifold Gauge Set",
            "Material": "Brass",
            "Refrigerant": "R22 R404A R407C R134a",
            "Package": "Paper box",
            "Carton": "16set",
            "Selling Units:": "Single item",
            "Single package size:": "25X15X18 cm",
            "Single gross weight:": "3.000 kg"
        },
        "Date Scraped": "2025-02-19 17:01:10"
    },
    {
        "Product Title": "Refrigerant R134a Gas Aerosol Can Refrigerant 134 Can Gas 390g",
        "Product URL": "https://www.alibaba.com/product-detail/Refrigerant-R134a-Gas-Aerosol-Can-Refrigerant_289337551.html",
        "Key Attributes": {
            "Metal Type": "Aluminum",
            "Industrial Use": "Chemical",
            "Place of Origin": "Shanghai, China",
            "Logo printing": "YES",
            "Model Number": "1000ML",
            "Brand Name": "PANCAN",
            "Product Name": "empty Aluminum Aerosol Can",
            "Material": "Aluminum",
            "Diameter": "22mm-88mm",
            "Height": "50mm-265mm",
            "Printing": "offset printing 6 colours",
            "Inner coating": "epoxy  resin",
            "MOQ": "10000pcs",
            "Packing": "Carton",
            "Delivery time": "30 Working Days",
            "Selling Units:": "Single item",
            "Single package size:": "8X8X25 cm",
            "Single gross weight:": "0.090 kg"
        },
        "Date Scraped": "2025-02-19 17:01:24"
    },
    {
        "Product Title": "R134a 340g Refrigerant Gas Can High Purity Gas Best Cooling System",
        "Product URL": "https://www.alibaba.com/product-detail/R134a-340g-Refrigerant-Gas-Can-High_1600867865134.html",
        "Key Attributes": {
            "CAS No.": "811-97-2",
            "Purity": "99.93%",
            "Classification": "Alkene & Derivatives",
            "Place of Origin": "Shandong, China",
            "Other Names": "Tetrafluoroethane",
            "MF": "CH2F-CF3",
            "EINECS No.": "212-377-0",
            "Grade Standard": "Industrial Grade",
            "Appearance": "Colorless",
            "Application": "Refrigerant Gas",
            "Brand Name": "M COOL / OEM",
            "Model Number": "R134a",
            "Product name": "R134a 340g refrigerant gas can package",
            "Complexion": "Clear and colorless",
            "Chloride": "<0.0003",
            "Molecular Weight": "102.03",
            "Boiling point @101.325 kPa": "- 26.18℃",
            "Density at boiling point": "5.26kg/m3",
            "Auto-ignition temperature": "770℃",
            "Ozone depletion potential": "0",
            "Halocarbon global warming potential": "1300",
            "Selling Units:": "Single item",
            "Single package size:": "6.7X6.7X14.8 cm",
            "Single gross weight:": "0.650 kg"
        },
        "Date Scraped": "2025-02-19 17:01:37"
    },
    {
        "Product Title": "N/A",
        "Product URL": "https://www.alibaba.com/product-detail/R123-Refrigerant-Gas_596118755.html",
        "Key Attributes": {},
        "Date Scraped": "2025-02-19 17:02:43"
    },
    {
        "Product Title": "N/A",
        "Product URL": "https://www.alibaba.com/product-detail/R134a-Refrigerant-Gas-R1234ze-Fro-Car_1601225051777.html",
        "Key Attributes": {},
        "Date Scraped": "2025-02-19 17:02:52"
    },
    {
        "Product Title": "N/A",
        "Product URL": "https://www.alibaba.com/product-detail/Manufacturers-Selling-Hydrocarbon-Derivatives-Various-Types_1601364827583.html",
        "Key Attributes": {
            "Material": "Steel",
            "Use": "Industrial Gas",
            "Place of Origin": "Jiangsu, China",
            "Wall Thickness": "1.2MM",
            "Weight": "10kg",
            "Outer Diameter": "140mm",
            "Pressure": "200bar",
            "Model Number": "bw",
            "Brand Name": "bw",
            "GWP": "1300",
            "Packing": "Disposable Cylinder 30lb/13.6kg",
            "Color": "Colorless Refrigerant",
            "Type": "Eco-friendly Refrigerant",
            "Selling Units:": "Single item",
            "Single package size:": "XX cm",
            "Single gross weight:": "kg"
        },
        "Date Scraped": "2025-02-19 17:03:05"
    },
    {
        "Product Title": "Refrigerant Gas R116 for Sale",
        "Product URL": "https://www.alibaba.com/product-detail/Refrigerant-Gas-R116-for-Sale_62398293757.html",
        "Key Attributes": {
            "CAS No.": "76-16-4",
            "Purity": "99.9%~99.999%",
            "Classification": "Alkene & Derivatives",
            "Place of Origin": "China",
            "Other Names": "Halocarbon 116, Hexafluoroethane",
            "MF": "C2F6",
            "EINECS No.": "200-939-8",
            "Grade Standard": "Agriculture Grade, Electron Grade, Industrial Grade, Medicine Grade, Reagent Grade",
            "Appearance": "colorless",
            "Application": "Industry",
            "Brand Name": "OEM accept",
            "Model Number": "C116",
            "color": "colorless",
            "toxic": "non-toxic",
            "Flammability Range (in air)": "non-flammable",
            "odor": "odorless",
            "organic": "inorganic",
            "Hazards": "High Pressure and Suffocation",
            "Packing": "Steel Cylinder",
            "UN No.": "2193",
            "Brand": "NRD",
            "Packaging Details": "standard export packing: High pressure seamless steel cylinder, each cylinder to be protected by two poly-nets,standing on wooden pallet wrapped by plastic film",
            "Port": "Chinese seaport / airport",
            "Supply Ability": "500 Ton/Tons per   Month"
        },
        "Date Scraped": "2025-02-19 17:03:23"
    },
    {
        "Product Title": "Factory COOLWE Supply Refrigerant Gas R600 Cool Gas R600 R600a Refrigerant Good Price",
        "Product URL": "https://www.alibaba.com/product-detail/Factory-COOLWE-Supply-Refrigerant-Gas-R600_1600721752005.html",
        "Key Attributes": {
            "CAS No.": "75-28-5",
            "Purity": "99.9%",
            "Classification": "Alkyne & Derivatives",
            "Place of Origin": "Zhejiang, China",
            "Other Names": "Isobutane R600A",
            "MF": "CH2FCF3",
            "EINECS No.": "200-891-8",
            "Grade Standard": "Industrial Grade, Reagent Grade",
            "Appearance": "Colorless, No turbid",
            "Application": "Car air condition",
            "Brand Name": "COOLWE",
            "Model Number": "R600A",
            "Product name": "Refrigerant gas R600A",
            "Type": "Eco-friendly Refrigerant",
            "Acidity": "≤1ppm",
            "ODP": "0",
            "MOISTURE": "≤20ppm",
            "Keywords": "R600 Gas",
            "Odor": "Odoriess",
            "Net weight": "6KG",
            "Brand": "COOLWE",
            "Package": "Disposable Steel Cylinder"
        },
        "Date Scraped": "2025-02-19 17:03:40"
    },
    {
        "Product Title": "Top Quality R-22 Refrigerant Gas for Air Conditioning Systems, Long-Lasting Cooling Performance",
        "Product URL": "https://www.alibaba.com/product-detail/Top-Quality-R-22-Refrigerant-Gas_11000021805388.html",
        "Key Attributes": {
            "CAS No.": "/",
            "Purity": "99",
            "Classification": "Alkene & Derivatives",
            "Place of Origin": "Germany",
            "Other Names": "Refrigerant Gas",
            "MF": "562-92-3",
            "EINECS No.": "/",
            "Grade Standard": "Agriculture Grade",
            "Appearance": "Liquid",
            "Application": "Agriculture and industry",
            "Brand Name": "Custom",
            "Model Number": "Refrigerant Gas",
            "Product Name": "Refrigerant Gas",
            "Quality": "100 % Original",
            "Service": "OEM  ODM Customized",
            "DELIVERY  TIME": "15 Days",
            "Supply Ability": "Month"
        },
        "Date Scraped": "2025-02-19 17:03:54"
    },
    {
        "Product Title": "N/A",
        "Product URL": "https://www.alibaba.com/product-detail/Industrial-Purity-99-5-Refrigerant-R170_11000017834293.html",
        "Key Attributes": {
            "CAS No.": "74-84-0",
            "Purity": "99.5%",
            "Classification": "Alkene & Derivatives",
            "Place of Origin": "Shanghai, China",
            "Other Names": "ethane r170",
            "MF": "C2H6",
            "EINECS No.": "200-841-8",
            "Grade Standard": "Industrial Grade",
            "Appearance": "Corlorless",
            "Application": "Refrigerant",
            "Brand Name": "OEM",
            "Model Number": "AGEMR170",
            "Product name": "R170 Refrigerant",
            "Other name": "R170",
            "Grade": "Refrigerant Grade",
            "CAS": "74-84-0",
            "Shelf life": "24 month",
            "Package": "Cylinder",
            "Certificate": "ISO9001",
            "DOT Class": "2.1",
            "Cylinder Standard": "GB/ISO/DOT",
            "Brand": "OEM",
            "Selling Units:": "Single item",
            "Single package size:": "23X23X160 cm",
            "Single gross weight:": "500.000 kg"
        },
        "Date Scraped": "2025-02-19 17:04:11"
    },
    {
        "Product Title": "Industrial Purity 99.5% Refrigerant R170 Refrigerant Gas C2H6 Ethane Gas",
        "Product URL": "https://www.alibaba.com/product-detail/Industrial-Purity-99-5-Refrigerant-R170_11000017834293.html",
        "Key Attributes": {
            "CAS No.": "74-84-0",
            "Purity": "99.5%",
            "Classification": "Alkene & Derivatives",
            "Place of Origin": "Shanghai, China",
            "Other Names": "ethane r170",
            "MF": "C2H6",
            "EINECS No.": "200-841-8",
            "Grade Standard": "Industrial Grade",
            "Appearance": "Corlorless",
            "Application": "Refrigerant",
            "Brand Name": "OEM",
            "Model Number": "AGEMR170",
            "Product name": "R170 Refrigerant",
            "Other name": "R170",
            "Grade": "Refrigerant Grade",
            "CAS": "74-84-0",
            "Shelf life": "24 month",
            "Package": "Cylinder",
            "Certificate": "ISO9001",
            "DOT Class": "2.1",
            "Cylinder Standard": "GB/ISO/DOT",
            "Brand": "OEM",
            "Selling Units:": "Single item",
            "Single package size:": "23X23X160 cm",
            "Single gross weight:": "500.000 kg"
        },
        "Date Scraped": "2025-02-19 17:05:26"
    },
    {
        "Product Title": "N/A",
        "Product URL": "https://www.alibaba.com/product-detail/Refrigerant-Gas-R600a-Gas-Refrigerant-Manufacture_62476099934.html",
        "Key Attributes": {
            "CAS No.": "75-28-5",
            "Purity": "99.9%",
            "Classification": "Alkene & Derivatives",
            "Place of Origin": "China",
            "Other Names": "R600A",
            "MF": "CH(CH3)3",
            "EINECS No.": "54597-66-9",
            "Grade Standard": "Agriculture Grade, Electron Grade, Food Grade, Industrial Grade, Medicine Grade, Reagent Grade",
            "Appearance": "colorless",
            "Application": "refrigerant",
            "Brand Name": "SINOLOONG/RONCOOL",
            "Model Number": "R600A",
            "Molecular Mass": "58.122",
            "Boiling  Point,             C at 1013bar": "-11.749",
            "Critical   Temperature C": "134.66",
            "Critical   Pressure": "3.629",
            "Critical Density(g/m3)": "0.2255",
            "ODP": "0",
            "GWP": "11",
            "Product name": "Refrigerant Gas R600a",
            "Purity %": "99.9min",
            "Acidity": "0.0001%",
            "Selling Units:": "Single item",
            "Single package size:": "24.5X24.5X42 cm",
            "Single gross weight:": "9.500 kg"
        },
        "Date Scraped": "2025-02-19 17:05:40"
    },
    {
        "Product Title": "N/A",
        "Product URL": "https://www.alibaba.com/product-detail/High-Purity-99-9-R290-Propane_1600963244991.html",
        "Key Attributes": {
            "CAS No.": "74-98-6",
            "Purity": "99.9%≥",
            "Classification": "Alkyl & Derivatives",
            "Place of Origin": "China",
            "Other Names": "R290",
            "MF": "CH3CH2CH3",
            "Grade Standard": "Industrial Grade",
            "Appearance": "Colorless and Odorless",
            "Application": "High and medium temperature applications,domestic refrigeration",
            "Model Number": "R290",
            "Chemical Name": "Propane",
            "Certification": "REACH, ISO",
            "ODP": "0",
            "MOQ": "2000kgs",
            "GWP": "3",
            "Boiling Point ℃": "-42.10",
            "Business Type": "Manufacturer",
            "OEM": "Yes"
        },
        "Date Scraped": "2025-02-19 17:05:55"
    },
    {
        "Product Title": "Wholesale Manufacturer New Price Refrigerant High Purity 99.9% Gas Recycled 14.3L/20L/40L Recovery Refrigerant Gas Cylinder",
        "Product URL": "https://www.alibaba.com/product-detail/Wholesale-Manufacturer-New-Price-Refrigerant-High_62138633515.html",
        "Key Attributes": {},
        "Date Scraped": "2025-02-19 17:06:03"
    },
    {
        "Product Title": "Unfilled Empty R134a Gas Can Cylinder",
        "Product URL": "https://www.alibaba.com/product-detail/Unfilled-Empty-R134a-Gas-Can-Cylinder_1601211071524.html?s=p",
        "Key Attributes": {
            "Material": "Steel"
        },
        "Date Scraped": "2025-02-19 17:07:11"
    },
    {
        "Product Title": "R134a Refrigerant Auto Ac air Conditioning Refrigerant Gas Supply / 12kg R134a Refrigerant Gas Professional Manufacture",
        "Product URL": "https://www.alibaba.com/product-detail/R134a-Refrigerant-Auto-Ac-air-Conditioning_1601374345730.html",
        "Key Attributes": {
            "CAS No.": "811-97-2",
            "Purity": "99.9%",
            "Classification": "Alkyl & Derivatives",
            "Place of Origin": "Shandong, China",
            "Other Names": "Isobutane",
            "MF": "C2H2F4",
            "EINECS No.": "200-857-2",
            "Grade Standard": "Industrial Grade",
            "Appearance": "Colorless",
            "Application": "Used as refrigerant",
            "Brand Name": "daoxintianhe",
            "Model Number": "DXTH-R047",
            "Product Name": "R134a",
            "Melting Point": "-160 ℃",
            "Boiling Point": "-26.05",
            "Sample": "Support",
            "Water Solubility": "Slightly soluble"
        },
        "Date Scraped": "2025-02-19 17:07:25"
    },
    {
        "Product Title": "Refrigerant Receiver tank Storage tank Liquid Receiver",
        "Product URL": "https://www.alibaba.com/product-detail/Refrigerant-Receiver-Tank-Storage-Tank-Liquid_60632052835.html?s=p",
        "Key Attributes": {
            "power source": "Electric",
            "application": "Commercial",
            "place of origin": "Guangdong, China",
            "after-sales service provided": "Free spare parts",
            "warranty": "1 Year",
            "type": "Refrigerator Parts",
            "brand name": "XMK",
            "condition": "New",
            "Application": "Refrigeration Parts",
            "Color": "black/blue/green",
            "Product Name": "Refrigerant Liquid Receiver",
            "Model": "1L - 14 L",
            "Tube material": "Copper",
            "Packing": "Carton Box",
            "Usage": "condensing unit",
            "Type": "Liquid Receiver",
            "Feature": "vertical",
            "Packaging Details": "10pcs for a carton",
            "Port": "guangzhou",
            "Selling Units:": "Single item",
            "Single package size:": "15X15X40 cm",
            "Single gross weight:": "30.000 kg",
            "Supply Ability": "20000 Piece/Pieces per   Week"
        },
        "Date Scraped": "2025-02-19 17:07:35"
    },
    {
        "Product Title": "Competitive Price Refrigerant Gas R134A High Quality Refrigerant Gas 13.6KG",
        "Product URL": "https://www.alibaba.com/product-detail/Competitive-Price-Refrigerant-Gas-R134A-High_1601370782035.html",
        "Key Attributes": {
            "power source": "Gas",
            "application": "Home",
            "type": "Air Conditioning Fitting",
            "place of origin": "Fujian, China",
            "Thickness": "5.0mm, 4.0mm, 2.0mm, 3.0mm",
            "feature": "Precise design, High quality materials, easy installation, Sustainable, Durable",
            "Material": "metal",
            "after-sales service provided": "Return and Replacement",
            "warranty": "1 Year",
            "operating language": "English",
            "logo/pattern": "Inkjet Printing",
            "model number": "R134 R410 R22 R404 R407",
            "Model Number": "conditioner refrigerant",
            "Type": "Air Conditioning Accessories",
            "After-sales Service Provided": "Free spare parts, None",
            "Transport quantity": "Container loading 1140 ctns",
            "MOQ": "30pcs /ctn, 15pcs/ctn",
            "Model type": "R134 R410, R404,R407, R22 ,R32 ,R507"
        },
        "Date Scraped": "2025-02-19 17:07:46"
    },
    {
        "Product Title": "Refrigerant R2900net Weight 5kg Industrial Refrigeration Gas",
        "Product URL": "https://www.alibaba.com/product-detail/Refrigerant-R2900net-Weight-5kg-Industrial-Refrigeration_1601375502219.html",
        "Key Attributes": {
            "Material": "Stainless Steel",
            "Place of Origin": "Guangdong, China",
            "Weight": "5kg",
            "Expiration Date": "5",
            "Product Name": "AC Refrigerant"
        },
        "Date Scraped": "2025-02-19 17:07:54"
    },
    {
        "Product Title": "High Efficiency Refrigeration High Purity Freon Explosive Hot air Conditioning Refrigerant",
        "Product URL": "https://www.alibaba.com/product-detail/High-Efficiency-Refrigeration-High-Purity-Freon_1601377717461.html",
        "Key Attributes": {
            "power source": "Electric",
            "application": "Commercial",
            "type": "Air Conditioning Fitting",
            "place of origin": "China",
            "Thickness": "3.0mm",
            "feature": "Sustainable",
            "Material": "Plastic",
            "Application": "Commercial",
            "Color": "Customized Color",
            "Product Name": "air conditioning refrigerant",
            "Keyword": "Air Conditioning Parts Spares",
            "MOQ": "500pcs",
            "Package": "Box",
            "Selling Units:": "Single item",
            "Single package size:": "60X60X60 cm",
            "Single gross weight:": "10.000 kg"
        },
        "Date Scraped": "2025-02-19 17:08:04"
    },
    {
        "Product Title": "Filling Refrigerant Butane Gas HCFC LPG Refrigerant Freon, Refrigerant Isobutane R600A Propane R20 Air Conditioning Lubrican",
        "Product URL": "https://www.alibaba.com/product-detail/Filling-Refrigerant-Butane-Gas-HCFC-LPG_1600963263227.html",
        "Key Attributes": {
            "condition": "New",
            "weight (kg)": "20",
            "place of origin": "Hebei, China",
            "brand name": "K-221219-2.0",
            "warranty": "Not Available",
            "Keywords": "jucer filter",
            "Product name": "Stainless Filter Cartridge",
            "Material": "Stainless Steel 304",
            "Diameter": "80mm",
            "Length": "21\"",
            "Application": "Jucer Filter, Beverage Filter, Caustic Liquid Filter",
            "Packaging Details": "Standard Air Freight Package",
            "Selling Units:": "Single item",
            "Single package size:": "50X50X50 cm",
            "Single gross weight:": "5.000 kg",
            "Supply Ability": "2000 Piece/Pieces per   Week"
        },
        "Date Scraped": "2025-02-19 17:08:13"
    },
    {
        "Product Title": "Secop Refrigerator  Compressor 50HZ R134a SC21G for Air Conditioning  Refrigeration Compressor  With High Quality",
        "Product URL": "https://www.alibaba.com/product-detail/Secop-Refrigerator-Compressor-50HZ-R134a-SC21G_1601214837708.html?s=p",
        "Key Attributes": {
            "type": "Refrigeration Compressor",
            "application": "Refrigeration Parts",
            "weight (kg)": "30",
            "warranty": "1 Year",
            "video outgoing-inspection": "Not Available",
            "machinery test report": "Not Available",
            "place of origin": "American",
            "Product name": "Refrigeration compressors",
            "Voltage": "220V/380V",
            "Displacement": "42.3",
            "Selling Units:": "Single item",
            "Single package size:": "XX cm",
            "Single gross weight:": "kg"
        },
        "Date Scraped": "2025-02-19 17:08:21"
    },
    {
        "Product Title": "Factory Direct Sale Refrigerant Gas R22 1kg R134a Can",
        "Product URL": "https://www.alibaba.com/product-detail/Factory-Direct-Sale-Refrigerant-Gas-R22_1600634401766.html",
        "Key Attributes": {
            "Metal Type": "TINPLATE",
            "Industrial Use": "Chemical",
            "Place of Origin": "Zhejiang, China",
            "Model Number": "G-1000",
            "Brand Name": "Bluefire",
            "Material": "Tinplate",
            "Item": "1l refrigerant gas R407c can",
            "Wall thickness": "0.35mm",
            "Diameter": "73mm",
            "Height": "260mm",
            "Printing": "Custom printed",
            "Usage": "Refrigerant gas packig",
            "Volume": "1000g",
            "Working pressure": "20bar",
            "Burst pressure": "30bar",
            "Selling Units:": "Single item",
            "Single package size:": "32X24X28 cm",
            "Single gross weight:": "2.835 kg"
        },
        "Date Scraped": "2025-02-19 17:08:34"
    }
]